<VTKFile type="UnstructuredGrid" byte_order="BigEndian">
<UnstructuredGrid><Piece NumberOfPoints="1310" NumberOfCells="2474">
<Points>
 <DataArray type="Float32" NumberOfComponents="3" format="ascii">
 9.729255676269531250e+00 4.280421137809753418e-01 0.000000000000000000e+00
 9.695744514465332031e+00 3.700000047683715820e-01 0.000000000000000000e+00
 9.762765884399414062e+00 3.700000047683715820e-01 0.000000000000000000e+00
 1.033244705200195312e+01 4.280421137809753418e-01 0.000000000000000000e+00
 1.029893589019775391e+01 3.700000047683715820e-01 0.000000000000000000e+00
 1.036595726013183594e+01 3.700000047683715820e-01 0.000000000000000000e+00
 7.953191280364990234e+00 3.700000047683715820e-01 0.000000000000000000e+00
 7.986701965332031250e+00 4.280421137809753418e-01 0.000000000000000000e+00
 7.919681072235107422e+00 4.280421137809753418e-01 0.000000000000000000e+00
 8.422340393066406250e+00 4.876454770565032959e-01 0.000000000000000000e+00
 8.455850601196289062e+00 4.280421137809753418e-01 0.000000000000000000e+00
 8.489361763000488281e+00 4.876454770565032959e-01 0.000000000000000000e+00
 9.872641563415527344e+00 1.942809700965881348e+00 0.000000000000000000e+00
 9.806603431701660156e+00 1.942809700965881348e+00 0.000000000000000000e+00
 9.839622497558593750e+00 1.882318615913391113e+00 0.000000000000000000e+00
 1.038236522674560547e+01 1.184999942779541016e+00 0.000000000000000000e+00
 1.032354736328125000e+01 1.218958377838134766e+00 0.000000000000000000e+00
 1.032354736328125000e+01 1.151041626930236816e+00 0.000000000000000000e+00
 8.882075309753417969e+00 1.821827530860900879e+00 0.000000000000000000e+00
 8.849056243896484375e+00 1.761336445808410645e+00 0.000000000000000000e+00
 8.915094375610351562e+00 1.761336445808410645e+00 0.000000000000000000e+00
 8.556383132934570312e+00 6.068521738052368164e-01 0.000000000000000000e+00
 8.589893341064453125e+00 6.664555072784423828e-01 0.000000000000000000e+00
 8.522871971130371094e+00 6.664555072784423828e-01 0.000000000000000000e+00
 7.561320781707763672e+00 1.821827530860900879e+00 0.000000000000000000e+00
 7.528301715850830078e+00 1.761336445808410645e+00 0.000000000000000000e+00
 7.594339847564697266e+00 1.761336445808410645e+00 0.000000000000000000e+00
 1.020591259002685547e+01 1.286875009536743164e+00 0.000000000000000000e+00
 1.014709472656250000e+01 1.320833325386047363e+00 0.000000000000000000e+00
 1.014709472656250000e+01 1.252916693687438965e+00 0.000000000000000000e+00
 8.053723335266113281e+00 6.664555072784423828e-01 0.000000000000000000e+00
 8.087234497070312500e+00 7.260589003562927246e-01 0.000000000000000000e+00
 8.020213127136230469e+00 7.260589003562927246e-01 0.000000000000000000e+00
 1.020591259002685547e+01 1.354791641235351562e+00 0.000000000000000000e+00
 1.020591259002685547e+01 1.422708392143249512e+00 0.000000000000000000e+00
 1.014709472656250000e+01 1.388749957084655762e+00 0.000000000000000000e+00
 9.773585319519042969e+00 1.640354394912719727e+00 0.000000000000000000e+00
 9.839622497558593750e+00 1.640354394912719727e+00 0.000000000000000000e+00
 9.806603431701660156e+00 1.700845360755920410e+00 0.000000000000000000e+00
 8.958510398864746094e+00 7.260589003562927246e-01 0.000000000000000000e+00
 8.992021560668945312e+00 7.856622338294982910e-01 0.000000000000000000e+00
 8.925000190734863281e+00 7.856622338294982910e-01 0.000000000000000000e+00
 8.120744705200195312e+00 7.856622338294982910e-01 0.000000000000000000e+00
 8.154254913330078125e+00 8.452655673027038574e-01 0.000000000000000000e+00
 8.087234497070312500e+00 8.452655673027038574e-01 0.000000000000000000e+00
 8.882075309753417969e+00 1.579863309860229492e+00 0.000000000000000000e+00
 8.915094375610351562e+00 1.519372224807739258e+00 0.000000000000000000e+00
 8.948113441467285156e+00 1.579863309860229492e+00 0.000000000000000000e+00
 9.025531768798828125e+00 8.452655673027038574e-01 0.000000000000000000e+00
 9.059042930603027344e+00 9.048689007759094238e-01 0.000000000000000000e+00
 8.992021560668945312e+00 9.048689007759094238e-01 0.000000000000000000e+00
 7.858490467071533203e+00 1.519372224807739258e+00 0.000000000000000000e+00
 7.825471878051757812e+00 1.579863309860229492e+00 0.000000000000000000e+00
 7.792452812194824219e+00 1.519372224807739258e+00 0.000000000000000000e+00
 8.750000000000000000e+00 1.579863309860229492e+00 0.000000000000000000e+00
 8.683961868286132812e+00 1.579863309860229492e+00 0.000000000000000000e+00
 8.716980934143066406e+00 1.519372224807739258e+00 0.000000000000000000e+00
 8.750000000000000000e+00 1.458881139755249023e+00 0.000000000000000000e+00
 8.783019065856933594e+00 1.519372224807739258e+00 0.000000000000000000e+00
 8.154254913330078125e+00 9.644722938537597656e-01 0.000000000000000000e+00
 8.187766075134277344e+00 9.048689007759094238e-01 0.000000000000000000e+00
 8.221276283264160156e+00 9.644722938537597656e-01 0.000000000000000000e+00
 7.429245471954345703e+00 1.458881139755249023e+00 0.000000000000000000e+00
 7.396226406097412109e+00 1.519372224807739258e+00 0.000000000000000000e+00
 7.363207340240478516e+00 1.458881139755249023e+00 0.000000000000000000e+00
 1.002945995330810547e+01 1.320833325386047363e+00 0.000000000000000000e+00
 9.974033355712890625e+00 1.353181004524230957e+00 0.000000000000000000e+00
 9.970642089843750000e+00 1.286875009536743164e+00 0.000000000000000000e+00
 9.727606773376464844e+00 1.020963788032531738e+00 0.000000000000000000e+00
 9.662234306335449219e+00 1.024075627326965332e+00 0.000000000000000000e+00
 9.695744514465332031e+00 9.644722938537597656e-01 0.000000000000000000e+00
 8.849056243896484375e+00 2.000000000000000000e+00 0.000000000000000000e+00
 8.882075309753417969e+00 1.942809700965881348e+00 0.000000000000000000e+00
 8.915094375610351562e+00 2.000000000000000000e+00 0.000000000000000000e+00
 1.010377311706542969e+01 2.000000000000000000e+00 0.000000000000000000e+00
 1.003773593902587891e+01 2.000000000000000000e+00 0.000000000000000000e+00
 1.007075500488281250e+01 1.942809700965881348e+00 0.000000000000000000e+00
 7.792452812194824219e+00 2.000000000000000000e+00 0.000000000000000000e+00
 7.726415157318115234e+00 2.000000000000000000e+00 0.000000000000000000e+00
 7.759433746337890625e+00 1.942809700965881348e+00 0.000000000000000000e+00
 8.816038131713867188e+00 1.942809700965881348e+00 0.000000000000000000e+00
 8.981132507324218750e+00 2.000000000000000000e+00 0.000000000000000000e+00
 8.948113441467285156e+00 1.942809700965881348e+00 0.000000000000000000e+00
 9.014150619506835938e+00 1.942809700965881348e+00 0.000000000000000000e+00
 9.047169685363769531e+00 2.000000000000000000e+00 0.000000000000000000e+00
 8.757447242736816406e+00 3.700000047683715820e-01 0.000000000000000000e+00
 8.723936080932617188e+00 4.280421137809753418e-01 0.000000000000000000e+00
 8.690425872802734375e+00 3.700000047683715820e-01 0.000000000000000000e+00
 8.353773117065429688e+00 1.942809700965881348e+00 0.000000000000000000e+00
 8.419811248779296875e+00 1.942809700965881348e+00 0.000000000000000000e+00
 8.386792182922363281e+00 2.000000000000000000e+00 0.000000000000000000e+00
 8.221276283264160156e+00 3.700000047683715820e-01 0.000000000000000000e+00
 8.288297653198242188e+00 3.700000047683715820e-01 0.000000000000000000e+00
 8.254787445068359375e+00 4.280421137809753418e-01 0.000000000000000000e+00
 1.045942401885986328e+01 4.319860041141510010e-01 0.000000000000000000e+00
 1.050000000000000000e+01 3.700000047683715820e-01 0.000000000000000000e+00
 1.050000000000000000e+01 4.379166662693023682e-01 0.000000000000000000e+00
 7.693396091461181641e+00 1.942809700965881348e+00 0.000000000000000000e+00
 7.660377502441406250e+00 2.000000000000000000e+00 0.000000000000000000e+00
 7.561320781707763672e+00 1.942809700965881348e+00 0.000000000000000000e+00
 7.627358436584472656e+00 1.942809700965881348e+00 0.000000000000000000e+00
 7.594339847564697266e+00 2.000000000000000000e+00 0.000000000000000000e+00
 1.050000000000000000e+01 5.058333277702331543e-01 0.000000000000000000e+00
 1.050000000000000000e+01 5.737500190734863281e-01 0.000000000000000000e+00
 1.043976116180419922e+01 5.441508293151855469e-01 0.000000000000000000e+00
 9.963829994201660156e+00 3.700000047683715820e-01 0.000000000000000000e+00
 1.003085136413574219e+01 3.700000047683715820e-01 0.000000000000000000e+00
 9.997340202331542969e+00 4.280421137809753418e-01 0.000000000000000000e+00
 1.000471687316894531e+01 1.942809700965881348e+00 0.000000000000000000e+00
 1.050000000000000000e+01 6.416666507720947266e-01 0.000000000000000000e+00
 1.044118213653564453e+01 6.756250262260437012e-01 0.000000000000000000e+00
 1.044118213653564453e+01 6.077083349227905273e-01 0.000000000000000000e+00
 1.045981597900390625e+01 1.938781023025512695e+00 0.000000000000000000e+00
 1.050000000000000000e+01 2.000000000000000000e+00 0.000000000000000000e+00
 1.043396186828613281e+01 2.000000000000000000e+00 0.000000000000000000e+00
 1.050000000000000000e+01 7.095833420753479004e-01 0.000000000000000000e+00
 1.050000000000000000e+01 7.774999737739562988e-01 0.000000000000000000e+00
 1.044118213653564453e+01 7.435416579246520996e-01 0.000000000000000000e+00
 1.020283031463623047e+01 1.942809700965881348e+00 0.000000000000000000e+00
 1.016981124877929688e+01 2.000000000000000000e+00 0.000000000000000000e+00
 1.013679218292236328e+01 1.942809700965881348e+00 0.000000000000000000e+00
 1.023584938049316406e+01 2.000000000000000000e+00 0.000000000000000000e+00
 1.026886749267578125e+01 1.942809700965881348e+00 0.000000000000000000e+00
 1.050000000000000000e+01 9.812499880790710449e-01 0.000000000000000000e+00
 1.044118213653564453e+01 1.015208363533020020e+00 0.000000000000000000e+00
 1.044118213653564453e+01 9.472916722297668457e-01 0.000000000000000000e+00
 1.050000000000000000e+01 9.133333563804626465e-01 0.000000000000000000e+00
 1.050000000000000000e+01 8.454166650772094727e-01 0.000000000000000000e+00
[...]
<CellData>
 <DataArray Name="pos.x" type="Float32" NumberOfComponents="1" format="ascii">
 9.729255319148792935e+00
 1.033244680851081831e+01
 7.953191489361598698e+00
 8.455851063829852521e+00
 9.839622641510075596e+00
 1.034315317687026514e+01
 8.882075471697563174e+00
 8.556382978723236832e+00
 7.561320754716526871e+00
 1.016670050084889709e+01
 8.053723404255210383e+00
 1.018630635374037041e+01
 9.806603773584773975e+00
 8.958510638298125883e+00
 8.120744680851347042e+00
 8.915094339622569919e+00
 9.025531914893216268e+00
 7.825471698112912655e+00
 8.716981132075638072e+00
 8.749999999999943157e+00
 8.187765957446485388e+00
 7.396226415094093731e+00
 9.991378209157289803e+00
 9.695195057131426708e+00
 8.882075471698332336e+00
 1.007075471698116154e+01
 7.759433962264163043e+00
 8.849056603772680774e+00
 8.981132075472002541e+00
 9.014150943396350257e+00
 8.723936170212905239e+00
 8.386792452830448497e+00
 8.254787234042469279e+00
 1.048647476130851963e+01
 7.693396226415294414e+00
 7.594339622641488319e+00
 1.047992029734832187e+01
 9.997340425532092567e+00
 1.003773584905686000e+01
 1.046078829421735001e+01
 1.046459282372535249e+01
 1.048039414710973460e+01
 1.048039414710944328e+01
 1.016981132075415317e+01
 1.023584905660367461e+01
 1.046078829421778877e+01
 1.048039414710845740e+01
 1.046078829421660217e+01
 1.048039414710915374e+01
 8.353773584905543004e+00
 8.287735849057021653e+00
 1.045468614587419687e+01
 1.042662445928169923e+01
 1.046413433577690277e+01
 1.039141624235161387e+01
 1.036485193455236065e+01
 8.188679245283420727e+00
 8.155660377358520563e+00
 8.023584905660664290e+00
 1.026886792452909525e+01
 8.355319148935784312e+00
 1.046078829421764667e+01
 1.046078829421704093e+01
 1.000471698113207708e+01
 8.623404255318384060e+00
 9.126063829787725012e+00
 9.159574468084402454e+00
 8.388829787234293178e+00
 8.489361702127590448e+00
 7.396226415094369067e+00
 9.193085106383106719e+00
 8.757446808510323422e+00
 8.589893617021550298e+00
 9.311320754716659209e+00
 9.113207547170400602e+00
 9.179245283018648394e+00
 9.212264150944076135e+00
 9.938679245283108088e+00
 9.863297872340853090e+00
 9.896808510638013701e+00
 9.872641509434098239e+00
 7.429245283018716783e+00
 7.528301886792609032e+00
 8.053723404255377361e+00
 8.120744680851130326e+00
 8.221276595744276605e+00
 8.087234042553248514e+00
 7.924528301887143300e+00
 7.792452830188810964e+00
 9.806603773585088391e+00
 1.045443429440297223e+01
 1.040032411244013311e+01
 1.043095467201477611e+01
 1.048039414710915374e+01
 8.824468085106110138e+00
 8.857978723404714927e+00
 9.025531914893065277e+00
 7.363207547169864142e+00
 9.595212765956837586e+00
 9.494680851064366323e+00
 9.628723404255321583e+00
 8.816037735849684864e+00
 8.749999999999900524e+00
 8.683962264151245947e+00
 8.452830188678582601e+00
 9.740566037736337890e+00
 9.674528301887638904e+00
 8.617924528302392417e+00
 8.518867924528310098e+00
 9.608490566037904301e+00
 9.662234042553043523e+00
 9.293617021276627810e+00
 9.360638297872350577e+00
 9.461170212765644294e+00
 9.542452830188581814e+00
 1.048039414710830464e+01
 1.046078829421749745e+01
 1.048039414710929584e+01
 1.048039414710915374e+01
 1.046078829421764667e+01
 1.046078829421704093e+01
 1.045954529713431747e+01
 1.048039414710944328e+01
 1.009787234042519444e+01
 1.013138297872331606e+01
 1.023191489361690465e+01
 9.443396226414199290e+00
 9.410377358490562116e+00
 1.047915115002489550e+01
 1.048039414710944328e+01
 1.048039414710915374e+01
 1.048039414710816075e+01
 1.048039414710929584e+01
 1.048039414710844675e+01
 1.048039414710959250e+01
 1.048039414711017336e+01
 9.762765957446767118e+00
 9.796276595745100124e+00
 7.986702127659700778e+00
 1.019840425531989503e+01
 8.925000000000162359e+00
 9.528191489361393707e+00
 8.321808510638369683e+00
 9.394148936170047648e+00
 8.522872340425706739e+00
 9.059042553191668290e+00
 9.260106382978927186e+00
 8.187765957447187049e+00
 9.930319148936302298e+00
 8.455851063830197134e+00
 8.656914893617303264e+00
 1.048039414710830464e+01
 1.026542553191450224e+01
 1.033543136538999363e+01
 9.344339622641866683e+00
 8.650943396225919457e+00
 7.495283018867726632e+00
 7.660377358490632282e+00
 7.891509433962021092e+00
 7.825471698113013908e+00
 9.146226415094369955e+00
 8.122641509433943696e+00
 8.551886792452815911e+00
 9.509433962264546736e+00
 8.948113207547340409e+00
 1.020283018867940328e+01
 9.905660377358602275e+00
 9.707547169811004295e+00
 8.221698113207697389e+00
 7.561320754716891912e+00
 9.080188679245045691e+00
 9.839622641509002676e+00
 9.641509433961717335e+00
 1.013679245282988539e+01
 9.278301886792933217e+00
 8.089622641509832235e+00
 8.056603773584303241e+00
 7.957547169811028276e+00
 8.783018867924473838e+00
 7.627358490565901761e+00
 1.046124060983622606e+01
 1.048039414710816075e+01
 1.046078829421660217e+01
 1.048660540234250682e+01
 8.320754716981440424e+00
 8.419811320755044903e+00
 7.297169811320484811e+00
 1.039836257285056575e+01
 1.046188854671844659e+01
 1.036783094953004358e+01
 1.046078829421703560e+01
 1.046078829421704093e+01
 1.046078829421689349e+01
 1.046078829421781187e+01
 1.046031444445684144e+01
 1.046078829421720791e+01
 1.046078829421764667e+01
 1.046078829421660217e+01
 1.046078829421778877e+01
 8.790957446808656428e+00
 9.963829787234329771e+00
 1.006436170212719894e+01
 8.422340425531471553e+00
 8.891489361702083372e+00
 8.992021276595915324e+00
 1.029893617021341967e+01
 7.919680851063949589e+00
 9.829787234041960531e+00
 9.327127659574527385e+00
 8.958510638297223494e+00
 1.003085106383012004e+01
 9.427659574468307824e+00
 8.020212765957195344e+00
 8.187765957446995202e+00
 8.288297872340816497e+00
 8.690425531915140667e+00
 8.556382978723338084e+00
 8.154255319148388637e+00
 9.092553191489329834e+00
 9.226595744680897937e+00
 1.016489361702045535e+01
 9.695744680851623443e+00
 9.561702127659966521e+00
 8.716981132075083849e+00
 9.245283018867569425e+00
 7.330188679245360106e+00
 8.915094339622680053e+00
 8.485849056604056528e+00
 7.990566037735845839e+00
 9.971698113207066783e+00
 1.010377358490566380e+01
 9.047169811320697974e+00
 1.030241249746525511e+01
 9.476415094339659007e+00
 7.726415094339204259e+00
 9.773584905660010591e+00
 7.858490566038052627e+00
 7.264150943396294302e+00
 7.264150943396137983e+00
 8.584905660377067704e+00
 8.254716981131318576e+00
 9.377358490566214400e+00
 9.575471698112680841e+00
 7.462264150943221708e+00
 1.048647476130870437e+01
 1.042951818522255358e+01
 1.042825039500906925e+01
 1.048660540234229899e+01
 1.035211158238462659e+01
 1.033920487925315435e+01
 1.041283525600481497e+01
 1.042021513116360154e+01
 1.042157658843579071e+01
 1.040197073554309526e+01
 1.042157658843520629e+01
 1.040197073554353224e+01
 1.042157658843474799e+01
 1.040197073554451279e+01
 1.042157658843532708e+01
 1.040197073554353224e+01
 1.042157658843593460e+01
 1.042157658843474799e+01
 1.042157658843474799e+01
 1.040197073554295493e+01
 1.042157658843532708e+01
 1.033043600356764102e+01
 1.042157658843565038e+01
 1.036724163124594078e+01
 1.040197073554353224e+01
 9.695744680851085207e+00
 9.662234042553437874e+00
 9.762765957446207565e+00
 9.963829787233818180e+00
 9.863297872340256234e+00
 9.997340425531911379e+00
 7.953191489361723043e+00
 8.053723404255592300e+00
 1.009787234042562076e+01
 1.016489361702109129e+01
 1.026473283179388751e+01
 8.857978723404237087e+00
 8.891489361702216598e+00
 8.757446808510186642e+00
 1.013138297872382765e+01
 9.561702127659755135e+00
 7.919680851063522375e+00
 9.509433962264496998e+00
 8.288297872340869787e+00
 8.321808510638323497e+00
 9.461170212765880549e+00
 9.260106382978671391e+00
 8.489361702127634857e+00
 8.656914893617129181e+00
 8.992021276596025459e+00
 9.025531914893546670e+00
 9.126063829786621895e+00
 9.159574468085681431e+00
 9.360638297872167612e+00
 8.087234042553053115e+00
 9.896808510638376077e+00
 8.355319148936091622e+00
 8.790957446808423725e+00
 1.042157658843535373e+01
 1.042157658843489720e+01
 1.035959708603904694e+01
 1.030576417644078902e+01
 9.443396226415163852e+00
 9.344339622641932408e+00
 8.783018867924521800e+00
 7.495283018868045488e+00
 7.462264150943523688e+00
 7.627358490566193971e+00
 7.759433962264260742e+00
 7.792452830188667967e+00
 9.080188679245123851e+00
 7.891509433962193398e+00
 8.056603773584205541e+00
 8.155660377358410429e+00
 8.716981132075746430e+00
 8.617924528301987408e+00
 8.584905660377158299e+00
 9.476415094340232770e+00
 9.608490566036723024e+00
 9.641509433963058484e+00
 9.047169811320811661e+00
 8.882075471698204439e+00
 8.816037735849473478e+00
 8.981132075471590426e+00
 1.013679245283045738e+01
 1.010377358490496036e+01
 1.000471698113194918e+01
 9.971698113208008252e+00
 9.740566037735698401e+00
 9.806603773584077643e+00
 8.188679245283021046e+00
 8.320754716980992782e+00
 7.528301886792447384e+00
 7.660377358490532806e+00
 9.311320754716655657e+00
 9.212264150943335395e+00
 8.023584905660932520e+00
 7.990566037735877813e+00
 8.287735849056570459e+00
 8.419811320754870820e+00
 7.396226415094107942e+00
 7.330188679245082994e+00
 1.040197073554353224e+01
 1.040197073554338481e+01
 1.042157658843593460e+01
 1.042157658843593460e+01
 1.042157658843532708e+01
 1.042157658843501622e+01
 8.690425531914295121e+00
 9.796276595745078808e+00
 8.221276595744299698e+00
 9.293617021275863976e+00
 8.422340425531501751e+00
 1.003085106383000280e+01
 9.494680851063655780e+00
 9.963829787233487778e+00
 8.958510638297532580e+00
 8.154255319149092074e+00
 8.020212765957611012e+00
 8.556382978723299004e+00
 9.092553191489212594e+00
 9.226595744680837541e+00
 1.023191489361707696e+01
 1.042157658843593460e+01
 8.386792452830281519e+00
 7.726415094339706968e+00
 8.650943396225748927e+00
 8.518867924528855440e+00
 9.179245283018762080e+00
 9.113207547169883682e+00
 7.858490566037868774e+00
 9.575471698113652508e+00
 9.377358490565875115e+00
 9.014150943396293414e+00
 8.749999999999898748e+00
 7.924528301886438975e+00
 9.245283018867878511e+00
 7.363207547170102174e+00
 8.122641509433798035e+00
 9.707547169811384435e+00
 1.003773584905615479e+01
 9.773584905660543498e+00
 9.905660377358705304e+00
 8.254716981132242282e+00
 7.594339622641519405e+00
 9.938679245282800778e+00
 8.849056603772954332e+00
 8.915094339622221753e+00
 1.042196003377779157e+01
 1.039822194565822322e+01
 1.023584905660396238e+01
 1.029824347009175334e+01
 1.041733549558670013e+01
 1.040421523637954948e+01
 1.039804167032306559e+01
 1.036353382973024750e+01
 1.039415074208713818e+01
 1.039008078363654342e+01
 1.036825278441812159e+01
 1.040197073554295493e+01
 1.006436170212806580e+01
 1.007075471698206215e+01
 9.193085106382923755e+00
 7.429245283018913959e+00
 1.040185227535764056e+01
 9.542452830188100421e+00
 9.528191489361562461e+00
 9.628723404255133289e+00
 9.410377358490711330e+00
 7.561320754716995829e+00
 8.824468085107042725e+00
 1.040197073554324447e+01
 1.042157658843445134e+01
 8.948113207546979808e+00
 7.297169811320769028e+00
 8.221698113207482450e+00
 1.040197073554407581e+01
 1.040197073554379159e+01
 1.040197073554368146e+01
 8.522872340425466930e+00
 8.623404255318908085e+00
 9.595212765957588985e+00
 9.059042553191734015e+00
 1.040197073554325158e+01
 8.353773584905479055e+00
 1.040282803064861739e+01
 9.930319148936760598e+00
 9.327127659575149110e+00
 9.427659574467833536e+00
 9.278301886792123199e+00
 9.872641509433842444e+00
 8.683962264151322330e+00
 7.986702127659554229e+00
 1.040197073554324447e+01
 1.019840425531970673e+01
 8.254787234042362698e+00
 1.040197073554379159e+01
 9.829787234042415278e+00
 9.729255319148970571e+00
 7.693396226415137207e+00
 8.925000000000249401e+00
 1.027221960350361663e+01
 1.016981132075441607e+01
 8.551886792452991770e+00
 8.452830188679012480e+00
 1.020283018867959690e+01
 8.485849056603919749e+00
 9.394148936170148900e+00
 8.388829787234604041e+00
 8.589893617021576944e+00
 9.146226415094197648e+00
 7.957547169811342691e+00
 8.120744680851110786e+00
 8.089622641510013423e+00
 8.723936170213095309e+00
 7.825471698113208419e+00
 9.674528301886773818e+00
 9.179245283018362400e+00
 1.036275902976189833e+01
 1.036275902976161056e+01
 1.036275902976160168e+01
 1.034315317687010705e+01
 1.036275902976174912e+01
 1.036275902976161056e+01
 1.036275902976160168e+01
 1.036275902976160168e+01
 1.034315317686993296e+01
 1.034315317686994007e+01
 9.796276595745126770e+00
 1.034315317686991342e+01
 1.034315317687038593e+01
 1.036275902976161767e+01
 8.656914893617168261e+00
 8.690425531914801383e+00
 8.723936170212610364e+00
 9.762765957446454479e+00
 9.829787234041869937e+00
 9.695744680851813513e+00
 8.288297872340097072e+00
 8.254787234042659350e+00
 9.327127659574188101e+00
 9.327127659573891449e+00
 8.254787234042430200e+00
 8.321808510638323497e+00
 8.388829787233607505e+00
 8.422340425532429009e+00
 1.006436170212691117e+01
 9.628723404255124407e+00
 9.662234042552785951e+00
 9.561702127659755135e+00
 9.394148936169697706e+00
 9.427659574467902814e+00
 9.528191489361935496e+00
 9.896808510639013790e+00
 9.863297872340796246e+00
 9.930319148935657481e+00
 8.790957446808253195e+00
 8.824468085106209614e+00
 8.857978723404384525e+00
 8.924999999999204903e+00
 8.958510638298179174e+00
 9.971698113207040137e+00
 8.154255319148777659e+00
 8.120744680850991770e+00
 8.120744680851258224e+00
 7.919680851064030414e+00
 7.953191489361793209e+00
 7.986702127659481398e+00
 8.020212765957387191e+00
 8.455851063829184611e+00
 8.556382978723625854e+00
 8.522872340425347915e+00
 8.589893617021608918e+00
 8.992021276595068002e+00
 9.092553191489567865e+00
 9.193085106383000138e+00
 9.159574468085025956e+00
 9.092553191489333386e+00
 1.033730592513152224e+01
 1.036384474738438044e+01
 1.029246338182758791e+01
 1.027162445366946919e+01
 1.016489361702087990e+01
 1.019840425531968009e+01
 1.000471698113198649e+01
 1.020252113019089890e+01
 1.010377358490499056e+01
 1.031337734426990771e+01
 1.036560863887016204e+01
 1.036363719246481807e+01
 1.034315317687038593e+01
 8.353773584905775706e+00
 8.386792452830578171e+00
 7.594339622641348875e+00
 7.726415094339351697e+00
 8.419811320754108763e+00
 8.650943396227006588e+00
 8.683962264150839161e+00
 8.518867924528409574e+00
 8.551886792452695119e+00
 7.627358490566130023e+00
 7.561320754717058001e+00
 9.146226415094853124e+00
 7.759433962263978302e+00
 9.608490566037554359e+00
 9.542452830188333124e+00
 9.443396226414915162e+00
 9.410377358490485733e+00
 9.047169811320515009e+00
 9.014150943396701976e+00
 8.783018867924225148e+00
 8.849056603774187124e+00
 7.858490566037730218e+00
 7.891509433962270670e+00
 9.311320754717320014e+00
 9.278301886791973985e+00
 7.462264150943316743e+00
 7.429245283018913959e+00
 7.990566037735876925e+00
 8.056603773585694128e+00
 7.330188679245324579e+00
 7.297169811320566524e+00
 9.575471698113537045e+00
 9.707547169811871157e+00
 9.773584905660309019e+00
 9.839622641509528478e+00
 9.872641509434139095e+00
 8.254716981131943854e+00
 8.188679245283006836e+00
 1.036275902976191432e+01
 1.036275902976191432e+01
 1.036275902976146135e+01
 1.034315317686993296e+01
 1.036275902976161767e+01
 1.036275902976219498e+01
 9.729255319148576220e+00
 9.126063829787238291e+00
 9.226595744680690103e+00
 9.930319148936504803e+00
 9.595212765958146761e+00
 8.690425531914518942e+00
 9.260106382978422701e+00
 8.053723404255144658e+00
 8.925000000000050449e+00
 8.187765957446583087e+00
 9.461170212766244703e+00
 9.528191489361626410e+00
 8.388829787233989421e+00
 8.522872340425466930e+00
 9.059042553191675395e+00
 8.790957446808409514e+00
 9.997340425532243557e+00
 1.029547759362034398e+01
 1.036275902976219498e+01
 1.023494484828211171e+01
 1.034602365357946852e+01
 1.023035126110274717e+01
 8.750000000000072831e+00
 7.363207547169785094e+00
 8.155660377358707080e+00
 8.089622641509107481e+00
 7.693396226415346817e+00
 9.674528301886631709e+00
 9.476415094339705192e+00
 1.007075471698161273e+01
 8.023584905660193556e+00
 8.287735849056554471e+00
 8.485849056603521845e+00
 7.495283018867837654e+00
 7.825471698113332764e+00
 9.938679245283324803e+00
 9.344339622641339105e+00
 8.981132075472164189e+00
 9.212264150943576979e+00
 9.740566037736325455e+00
 9.806603773584670947e+00
 8.948113207547276460e+00
 8.882075471697907787e+00
 9.080188679245123851e+00
 8.816037735848892609e+00
 7.957547169811117982e+00
 8.617924528301548648e+00
 1.013679245283043784e+01
 1.034464747357115755e+01
 1.036275902976204577e+01
 1.034435735468095174e+01
 1.026316919928025406e+01
 1.025989386803222203e+01
 1.032923375961012091e+01
 1.034776703686800303e+01
 1.036066181603562875e+01
 1.030126578853634278e+01
 9.377358490566395588e+00
 1.034315317686983704e+01
 9.905660377359257751e+00
 8.485849056602976503e+00
 8.584905660377009085e+00
 8.452830188679754997e+00
 8.221698113207711600e+00
 9.509433962265077867e+00
 8.489361702127338205e+00
 9.293617021276944001e+00
 9.394148936170818587e+00
 1.034315317686996849e+01
 8.221276595744772209e+00
 9.025531914894047603e+00
 9.126063829787021575e+00
 1.003085106382944680e+01
 1.013138297872299098e+01
 8.757446808511035741e+00
 8.623404255318895650e+00
 8.723936170212757801e+00
 1.016950226226659204e+01
 8.355319148936557028e+00
 8.489361702128046971e+00
 1.034315317687022073e+01
 1.034403133957299481e+01
 1.034315317686983704e+01
 7.924528301886737403e+00
 9.245283018868324376e+00
 9.159574468084962007e+00
 9.260106382978374739e+00
 8.891489361701969685e+00
 8.992021276595130175e+00
 8.915094339622518405e+00
 7.396226415094508511e+00
 8.122641509434251006e+00
 9.896808510637740142e+00
 1.003085106383000280e+01
 1.034315317687009816e+01
 7.660377358490397803e+00
 8.320754716980721000e+00
 9.113207547169821510e+00
 9.494680851063794336e+00
 9.595212765957469969e+00
 7.528301886792238662e+00
 7.986702127659258466e+00
 7.953191489361723043e+00
 9.641509433961925168e+00
 9.014150943395812021e+00
 1.009787234042560478e+01
 8.716981132075153127e+00
 9.360638297872093005e+00
 1.003773584905689376e+01
 1.034315317687010705e+01
 8.087234042552909230e+00
 8.221276595744757998e+00
 9.628723404255183027e+00
 9.729255319148709447e+00
 7.792452830188816293e+00
 9.762765957446553955e+00
 1.024512391241395370e+01
 1.030394147108733982e+01
 1.030394147108722258e+01
 1.028433561819654152e+01
 1.022551805952327975e+01
 1.030394147108795266e+01
 1.028433561819644559e+01
 1.030394147108681757e+01
 1.030394147108719061e+01
 1.022551805952248749e+01
 1.028433561819656283e+01
 1.024512391241397680e+01
 1.028433561819644559e+01
 1.024512391241413667e+01
 1.030394147108796332e+01
 1.028433561819666942e+01
 1.000471698113205932e+01
 9.740566037735698401e+00
 1.006436170212754355e+01
 1.016334806808727542e+01
 1.030394147108704317e+01
 1.019447420136711635e+01
 1.030961953781285523e+01
 8.221698113207791536e+00
 1.023773279027122385e+01
 7.297169811320636690e+00
 8.716981132075302341e+00
 7.330188679244996841e+00
 7.462264150943298091e+00
 8.188679245282724395e+00
 8.089622641509262024e+00
 7.693396226415085692e+00
 9.641509433961868325e+00
 9.773584905660209543e+00
 9.740566037736142491e+00
 9.542452830189091628e+00
 9.509433962263788231e+00
 1.016539330190769697e+01
 1.007038608595042462e+01
 8.683962264151135813e+00
 8.650943396225898141e+00
 9.872641509433842444e+00
 9.905660377358156410e+00
 8.056603773585324646e+00
 7.957547169811187260e+00
 7.825471698113436680e+00
 8.254716981132146358e+00
 8.386792452830091449e+00
 8.353773584905498595e+00
 7.429245283018850010e+00
 7.594339622641702370e+00
 7.726415094339664336e+00
 7.924528301886661019e+00
 9.443396226414751737e+00
 9.377358490565354643e+00
 8.816037735848745172e+00
 8.981132075471442988e+00
 9.278301886792489128e+00
 9.245283018868175162e+00
 9.146226415094371731e+00
 9.113207547170240730e+00
 1.028433561819631947e+01
 1.026560998894728449e+01
 1.030394147108703251e+01
 1.028433561819626618e+01
 1.030394147108737002e+01
 1.030394147108707337e+01
 1.030394147108732916e+01
 1.028433561819649888e+01
 1.030394147108732916e+01